<PP_INFO>
Generated using ld1 code (maybe, or maybe not)                                  
Author: unknown    Generation date: as well                                     
Info: automatically converted from PWSCF format                                 
    0        The Pseudo was generated with a Non-Relativistic Calculation
  0.00000000000E+00    Local Potential cutoff radius
nl pn  l   occ               Rcut            Rcut US             E pseu
*S  0  0  2.00       .00000000000       .00000000000       .00000000000
*P  0  1  2.00       .00000000000       .00000000000       .00000000000
</PP_INFO>


<PP_HEADER>
   0                   Version Number
  C.                   Element
   NC                  Norm - Conserving pseudopotential
    F                  Nonlinear Core Correction
 SLA  PZ   NOGX NOGC   PZ   Exchange-Correlation functional
    4.00000000000      Z valence
     .00000000000      Total energy
   .0000000   .0000000 Suggested cutoff for wfc and rho
    0                  Max angular momentum component
  397                  Number of points in mesh
    2    1             Number of Wavefunctions, Number of Projectors
 Wavefunctions         nl  l   occ
                       *S  0  2.00
                       *P  1  2.00
</PP_HEADER>


<PP_MESH>
  <PP_R>
  3.05260648146E-03  3.12988358245E-03  3.20911696256E-03  3.29035614525E-03
  3.37365190763E-03  3.45905631228E-03  3.54662273973E-03  3.63640592184E-03
  3.72846197603E-03  3.82284844032E-03  3.91962430933E-03  4.01885007114E-03
  4.12058774506E-03  4.22490092045E-03  4.33185479646E-03  4.44151622273E-03
  4.55395374122E-03  4.66923762904E-03  4.78743994237E-03  4.90863456152E-03
  5.03289723705E-03  5.16030563720E-03  5.29093939634E-03  5.42488016485E-03
  5.56221166005E-03  5.70301971861E-03  5.84739235014E-03  5.99541979224E-03
  6.14719456687E-03  6.30281153822E-03  6.46236797195E-03  6.62596359604E-03
  6.79370066306E-03  6.96568401415E-03  7.14202114451E-03  7.32282227057E-03
  7.50820039893E-03  7.69827139695E-03  7.89315406519E-03  8.09297021167E-03
  8.29784472798E-03  8.50790566736E-03  8.72328432474E-03  8.94411531879E-03
  9.17053667607E-03  9.40268991730E-03  9.64072014581E-03  9.88477613824E-03
  1.01350104375E-02  1.03915794483E-02  1.06546435345E-02  1.09243671197E-02
  1.12009187900E-02  1.14844713991E-02  1.17752021767E-02  1.20732928390E-02
  1.23789297024E-02  1.26923037998E-02  1.30136110002E-02  1.33430521311E-02
  1.36808331040E-02  1.40271650429E-02  1.43822644166E-02  1.47463531737E-02
  1.51196588816E-02  1.55024148684E-02  1.58948603693E-02  1.62972406752E-02
  1.67098072871E-02  1.71328180725E-02  1.75665374270E-02  1.80112364391E-02
  1.84671930604E-02  1.89346922785E-02  1.94140262956E-02  1.99054947111E-02
  2.04094047088E-02  2.09260712489E-02  2.14558172646E-02  2.19989738646E-02
  2.25558805394E-02  2.31268853738E-02  2.37123452644E-02  2.43126261427E-02
  2.49281032038E-02  2.55591611408E-02  2.62061943856E-02  2.68696073550E-02
  2.75498147036E-02  2.82472415832E-02  2.89623239084E-02  2.96955086288E-02
  3.04472540088E-02  3.12180299137E-02  3.20083181035E-02  3.28186125340E-02
  3.36494196658E-02  3.45012587802E-02  3.53746623045E-02  3.62701761442E-02
  3.71883600247E-02  3.81297878409E-02  3.90950480156E-02  4.00847438681E-02
  4.10994939903E-02  4.21399326341E-02  4.32067101076E-02  4.43004931815E-02
  4.54219655057E-02  4.65718280369E-02  4.77507994767E-02  4.89596167206E-02
  5.01990353187E-02  5.14698299480E-02  5.27727948965E-02  5.41087445597E-02
  5.54785139497E-02  5.68829592168E-02  5.83229581852E-02  5.97994109010E-02
  6.13132401952E-02  6.28653922605E-02  6.44568372424E-02  6.60885698458E-02
  6.77616099568E-02  6.94770032798E-02  7.12358219915E-02  7.30391654108E-02
  7.48881606862E-02  7.67839634998E-02  7.87277587902E-02  8.07207614926E-02
  8.27642172986E-02  8.48594034346E-02  8.70076294602E-02  8.92102380865E-02
  9.14686060157E-02  9.37841448012E-02  9.61583017301E-02  9.85925607278E-02
  1.01088443285E-01  1.03647509411E-01  1.06271358604E-01  1.08961630855E-01
  1.11720007673E-01  1.14548213132E-01  1.17448014953E-01  1.20421225607E-01
  1.23469703447E-01  1.26595353871E-01  1.29800130512E-01  1.33086036460E-01
  1.36455125513E-01  1.39909503462E-01  1.43451329404E-01  1.47082817097E-01
  1.50806236339E-01  1.54623914388E-01  1.58538237417E-01  1.62551652005E-01
  1.66666666667E-01  1.70885853421E-01  1.75211849396E-01  1.79647358481E-01
  1.84195153013E-01  1.88858075511E-01  1.93639040455E-01  1.98541036102E-01
  2.03567126360E-01  2.08720452699E-01  2.14004236115E-01  2.19421779145E-01
  2.24976467929E-01  2.30671774330E-01  2.36511258099E-01  2.42498569103E-01
  2.48637449607E-01  2.54931736611E-01  2.61385364248E-01  2.68002366248E-01
  2.74786878450E-01  2.81743141397E-01  2.88875502978E-01  2.96188421152E-01
  3.03686466732E-01  3.11374326239E-01  3.19256804836E-01  3.27338829328E-01
  3.35625451245E-01  3.44121849994E-01  3.52833336102E-01  3.61765354531E-01
  3.70923488082E-01  3.80313460888E-01  3.89941141988E-01  3.99812548995E-01
  4.09933851859E-01  4.20311376726E-01  4.30951609886E-01  4.41861201830E-01
  4.53046971410E-01  4.64515910094E-01  4.76275186344E-01  4.88332150089E-01
  5.00694337324E-01  5.13369474820E-01  5.26365484948E-01  5.39690490640E-01
  5.53352820456E-01  5.67361013798E-01  5.81723826244E-01  5.96450235017E-01
  6.11549444603E-01  6.27030892500E-01  6.42904255116E-01  6.59179453820E-01
  6.75866661141E-01  6.92976307126E-01  7.10519085861E-01  7.28505962155E-01
  7.46948178390E-01  7.65857261551E-01  7.85245030432E-01  8.05123603018E-01
  8.25505404066E-01  8.46403172863E-01  8.67829971197E-01  8.89799191512E-01
  9.12324565288E-01  9.35420171616E-01  9.59100446001E-01  9.83380189387E-01
  1.00827457740E+00  1.03379916985E+00  1.05996992043E+00  1.08680318672E+00
  1.11431574038E+00  1.14252477765E+00  1.17144793010E+00  1.20110327564E+00
  1.23150934982E+00  1.26268515744E+00  1.29465018438E+00  1.32742440984E+00
  1.36102831876E+00  1.39548291469E+00  1.43080973286E+00  1.46703085370E+00
  1.50416891657E+00  1.54224713398E+00  1.58128930606E+00  1.62131983543E+00
  1.66236374247E+00  1.70444668097E+00  1.74759495412E+00  1.79183553101E+00
  1.83719606344E+00  1.88370490321E+00  1.93139111987E+00  1.98028451885E+00
  2.03041566012E+00  2.08181587727E+00  2.13451729711E+00  2.18855285975E+00
  2.24395633917E+00  2.30076236434E+00  2.35900644090E+00  2.41872497327E+00
  2.47995528748E+00  2.54273565448E+00  2.60710531403E+00  2.67310449928E+00
  2.74077446185E+00  2.81015749768E+00  2.88129697343E+00  2.95423735358E+00
  3.02902422824E+00  3.10570434165E+00  3.18432562137E+00  3.26493720827E+00
  3.34758948720E+00  3.43233411853E+00  3.51922407042E+00  3.60831365192E+00
  3.69965854691E+00  3.79331584892E+00  3.88934409682E+00  3.98780331140E+00
  4.08875503285E+00  4.19226235930E+00  4.29838998620E+00  4.40720424676E+00
  4.51877315344E+00  4.63316644044E+00  4.75045560729E+00  4.87071396354E+00
  4.99401667457E+00  5.12044080858E+00  5.25006538479E+00  5.38297142277E+00
  5.51924199312E+00  5.65896226937E+00  5.80221958127E+00  5.94910346928E+00
  6.09970574061E+00  6.25412052660E+00  6.41244434151E+00  6.57477614287E+00
  6.74121739334E+00  6.91187212414E+00  7.08684700001E+00  7.26625138595E+00
  7.45019741555E+00  7.63880006106E+00  7.83217720526E+00  8.03044971518E+00
  8.23374151759E+00  8.44217967647E+00  8.65589447247E+00  8.87501948429E+00
  9.09969167219E+00  9.33005146361E+00  9.56624284091E+00  9.80841343139E+00
  1.00567145996E+01  1.03113015417E+01  1.05723333830E+01  1.08399732768E+01
  1.11143885068E+01  1.13957505914E+01  1.16842353911E+01  1.19800232183E+01
  1.22832989499E+01  1.25942521433E+01  1.29130771542E+01  1.32399732587E+01
  1.35751447775E+01  1.39188012037E+01  1.42711573337E+01  1.46324334016E+01
  1.50028552168E+01  1.53826543048E+01  1.57720680525E+01  1.61713398562E+01
  1.65807192737E+01  1.70004621804E+01  1.74308309295E+01  1.78720945153E+01
  1.83245287420E+01  1.87884163957E+01  1.92640474212E+01  1.97517191035E+01
  2.02517362531E+01  2.07644113972E+01  2.12900649743E+01  2.18290255351E+01
  2.23816299475E+01  2.29482236071E+01  2.35291606536E+01  2.41248041914E+01
  2.47355265171E+01  2.53617093521E+01  2.60037440811E+01  2.66620319966E+01
  2.73369845500E+01  2.80290236086E+01  2.87385817195E+01  2.94661023794E+01
  3.02120403125E+01  3.09768617543E+01  3.17610447431E+01  3.25650794188E+01
  3.33894683291E+01  3.42347267441E+01  3.51013829778E+01  3.59899787184E+01
  3.69010693674E+01  3.78352243859E+01  3.87930276513E+01  3.97750778218E+01
  4.07819887107E+01  4.18143896701E+01  4.28729259843E+01  4.39582592728E+01
  4.50710679044E+01  4.62120474205E+01  4.73819109707E+01  4.85813897576E+01
  4.98112334945E+01  5.10722108739E+01  5.23651100476E+01  5.36907391197E+01
  5.50499266516E+01  5.64435221797E+01  5.78723967465E+01  5.93374434451E+01
  6.08395779776E+01
  </PP_R>
  <PP_RAB>
  7.63151620364E-05  7.82470895612E-05  8.02279240641E-05  8.22589036312E-05
  8.43412976909E-05  8.64764078071E-05  8.86655684932E-05  9.09101480460E-05
  9.32115494007E-05  9.55712110080E-05  9.79906077334E-05  1.00471251778E-04
  1.03014693626E-04  1.05622523011E-04  1.08296369911E-04  1.11037905568E-04
  1.13848843530E-04  1.16730940726E-04  1.19685998559E-04  1.22715864038E-04
  1.25822430926E-04  1.29007640930E-04  1.32273484909E-04  1.35622004121E-04
  1.39055291501E-04  1.42575492965E-04  1.46184808754E-04  1.49885494806E-04
  1.53679864172E-04  1.57570288456E-04  1.61559199299E-04  1.65649089901E-04
  1.69842516577E-04  1.74142100354E-04  1.78550528613E-04  1.83070556764E-04
  1.87705009973E-04  1.92456784924E-04  1.97328851630E-04  2.02324255292E-04
  2.07446118199E-04  2.12697641684E-04  2.18082108118E-04  2.23602882970E-04
  2.29263416902E-04  2.35067247932E-04  2.41018003645E-04  2.47119403456E-04
  2.53375260938E-04  2.59789486207E-04  2.66366088361E-04  2.73109177992E-04
  2.80022969749E-04  2.87111784978E-04  2.94380054418E-04  3.01832320976E-04
  3.09473242560E-04  3.17307594994E-04  3.25340275005E-04  3.33576303278E-04
  3.42020827600E-04  3.50679126072E-04  3.59556610414E-04  3.68658829342E-04
  3.77991472039E-04  3.87560371711E-04  3.97371509231E-04  4.07431016881E-04
  4.17745182178E-04  4.28320451814E-04  4.39163435674E-04  4.50280910978E-04
  4.61679826510E-04  4.73367306962E-04  4.85350657390E-04  4.97637367778E-04
  5.10235117721E-04  5.23151781222E-04  5.36395431616E-04  5.49974346616E-04
  5.63897013486E-04  5.78172134346E-04  5.92808631610E-04  6.07815653568E-04
  6.23202580094E-04  6.38979028521E-04  6.55154859640E-04  6.71740183874E-04
  6.88745367590E-04  7.06181039581E-04  7.24058097710E-04  7.42387715720E-04
  7.61181350220E-04  7.80450747841E-04  8.00207952586E-04  8.20465313351E-04
  8.41235491644E-04  8.62531469505E-04  8.84366557611E-04  9.06754403605E-04
  9.29709000618E-04  9.53244696022E-04  9.77376200391E-04  1.00211859670E-03
  1.02748734976E-03  1.05349831585E-03  1.08016775269E-03  1.10751232954E-03
  1.13554913764E-03  1.16429570092E-03  1.19376998692E-03  1.22399041801E-03
  1.25497588297E-03  1.28674574870E-03  1.31931987241E-03  1.35271861399E-03
  1.38696284874E-03  1.42207398042E-03  1.45807395463E-03  1.49498527252E-03
  1.53283100488E-03  1.57163480651E-03  1.61142093106E-03  1.65221424615E-03
  1.69404024892E-03  1.73692508199E-03  1.78089554979E-03  1.82597913527E-03
  1.87220401716E-03  1.91959908750E-03  1.96819396975E-03  2.01801903731E-03
  2.06910543246E-03  2.12148508586E-03  2.17519073650E-03  2.23025595216E-03
  2.28671515039E-03  2.34460362003E-03  2.40395754325E-03  2.46481401820E-03
  2.52721108214E-03  2.59118773527E-03  2.65678396509E-03  2.72404077137E-03
  2.79300019182E-03  2.86370532830E-03  2.93620037383E-03  3.01053064018E-03
  3.08674258617E-03  3.16488384677E-03  3.24500326280E-03  3.32715091150E-03
  3.41137813782E-03  3.49773758654E-03  3.58628323510E-03  3.67707042744E-03
  3.77015590848E-03  3.86559785970E-03  3.96345593542E-03  4.06379130012E-03
  4.16666666667E-03  4.27214633552E-03  4.38029623490E-03  4.49118396202E-03
  4.60487882532E-03  4.72145188778E-03  4.84097601137E-03  4.96352590255E-03
  5.08917815900E-03  5.21801131747E-03  5.35010590287E-03  5.48554447862E-03
  5.62441169823E-03  5.76679435825E-03  5.91278145247E-03  6.06246422758E-03
  6.21593624017E-03  6.37329341526E-03  6.53463410621E-03  6.70005915619E-03
  6.86967196125E-03  7.04357853491E-03  7.22188757445E-03  7.40471052881E-03
  7.59216166829E-03  7.78435815597E-03  7.98142012089E-03  8.18347073321E-03
  8.39063628113E-03  8.60304624986E-03  8.82083340255E-03  9.04413386326E-03
  9.27308720205E-03  9.50783652221E-03  9.74852854969E-03  9.99531372486E-03
  1.02483462965E-02  1.05077844182E-02  1.07737902471E-02  1.10465300458E-02
  1.13261742852E-02  1.16128977524E-02  1.19068796586E-02  1.22083037522E-02
  1.25173584331E-02  1.28342368705E-02  1.31591371237E-02  1.34922622660E-02
  1.38338205114E-02  1.41840253450E-02  1.45430956561E-02  1.49112558754E-02
  1.52887361151E-02  1.56757723125E-02  1.60726063779E-02  1.64794863455E-02
  1.68966665285E-02  1.73244076782E-02  1.77629771465E-02  1.82126490539E-02
  1.86737044597E-02  1.91464315388E-02  1.96311257608E-02  2.01280900755E-02
  2.06376351016E-02  2.11600793216E-02  2.16957492799E-02  2.22449797878E-02
  2.28081141322E-02  2.33855042904E-02  2.39775111500E-02  2.45845047347E-02
  2.52068644351E-02  2.58449792463E-02  2.64992480108E-02  2.71700796680E-02
  2.78578935095E-02  2.85631194412E-02  2.92861982525E-02  3.00275818909E-02
  3.07877337455E-02  3.15671289360E-02  3.23662546096E-02  3.31856102460E-02
  3.40257079690E-02  3.48870728672E-02  3.57702433216E-02  3.66757713424E-02
  3.76042229143E-02  3.85561783496E-02  3.95322326515E-02  4.05329958857E-02
  4.15590935617E-02  4.26111670241E-02  4.36898738530E-02  4.47958882753E-02
  4.59299015860E-02  4.70926225803E-02  4.82847779968E-02  4.95071129712E-02
  5.07603915029E-02  5.20453969317E-02  5.33629324278E-02  5.47138214937E-02
  5.60989084792E-02  5.75190591086E-02  5.89751610224E-02  6.04681243316E-02
  6.19988821870E-02  6.35683913619E-02  6.51776328508E-02  6.68276124819E-02
  6.85193615462E-02  7.02539374420E-02  7.20324243357E-02  7.38559338394E-02
  7.57256057060E-02  7.76426085412E-02  7.96081405343E-02  8.16234302067E-02
  8.36897371799E-02  8.58083529633E-02  8.79806017606E-02  9.02078412980E-02
  9.24914636727E-02  9.48328962230E-02  9.72336024206E-02  9.96950827849E-02
  1.02218875821E-01  1.04806558983E-01  1.07459749655E-01  1.10180106169E-01
  1.12969328836E-01  1.15829161011E-01  1.18761390182E-01  1.21767849088E-01
  1.24850416864E-01  1.28011020215E-01  1.31251634620E-01  1.34574285569E-01
  1.37981049828E-01  1.41474056734E-01  1.45055489532E-01  1.48727586732E-01
  1.52492643515E-01  1.56353013165E-01  1.60311108538E-01  1.64369403572E-01
  1.68530434834E-01  1.72796803103E-01  1.77171175000E-01  1.81656284649E-01
  1.86254935389E-01  1.90970001526E-01  1.95804430132E-01  2.00761242880E-01
  2.05843537940E-01  2.11054491912E-01  2.16397361812E-01  2.21875487107E-01
  2.27492291805E-01  2.33251286590E-01  2.39156071023E-01  2.45210335785E-01
  2.51417864989E-01  2.57782538543E-01  2.64308334576E-01  2.70999331921E-01
  2.77859712671E-01  2.84893764786E-01  2.92105884778E-01  2.99500580457E-01
  3.07082473748E-01  3.14856303582E-01  3.22826928855E-01  3.30999331468E-01
  3.39378619437E-01  3.47970030092E-01  3.56778933343E-01  3.65810835041E-01
  3.75071380419E-01  3.84566357619E-01  3.94301701312E-01  4.04283496404E-01
  4.14517981841E-01  4.25011554511E-01  4.35770773238E-01  4.46802362884E-01
  4.58113218551E-01  4.69710409892E-01  4.81601185530E-01  4.93792977586E-01
  5.06293406328E-01  5.19110284930E-01  5.32251624358E-01  5.45725638378E-01
  5.59540748687E-01  5.73705590179E-01  5.88229016339E-01  6.03120104784E-01
  6.18388162927E-01  6.34042733803E-01  6.50093602027E-01  6.66550799914E-01
  6.83424613750E-01  7.00725590216E-01  7.18464542987E-01  7.36652559485E-01
  7.55301007813E-01  7.74421543858E-01  7.94026118578E-01  8.14126985469E-01
  8.34736708228E-01  8.55868168603E-01  8.77534574444E-01  8.99749467961E-01
  9.22526734184E-01  9.45880609647E-01  9.69825691282E-01  9.94376945544E-01
  1.01954971777E+00  1.04535974175E+00  1.07182314961E+00  1.09895648182E+00
  1.12677669761E+00  1.15530118551E+00  1.18454777427E+00  1.21453474394E+00
  1.24528083736E+00  1.27680527185E+00  1.30912775119E+00  1.34226847799E+00
  1.37624816629E+00  1.41108805449E+00  1.44680991866E+00  1.48343608613E+00
  1.52098944944E+00
  </PP_RAB>
</PP_MESH>


<PP_LOCAL>
 -1.27813290000E+01 -1.27813750000E+01 -1.27814220000E+01 -1.27814700000E+01
 -1.27815200000E+01 -1.27815710000E+01 -1.27816230000E+01 -1.27816780000E+01
 -1.27817330000E+01 -1.27817910000E+01 -1.27818500000E+01 -1.27819110000E+01
 -1.27819740000E+01 -1.27820380000E+01 -1.27821050000E+01 -1.27821730000E+01
 -1.27822440000E+01 -1.27823160000E+01 -1.27823910000E+01 -1.27824680000E+01
 -1.27825480000E+01 -1.27826300000E+01 -1.27827140000E+01 -1.27828010000E+01
 -1.27828910000E+01 -1.27829830000E+01 -1.27830780000E+01 -1.27831770000E+01
 -1.27832780000E+01 -1.27833830000E+01 -1.27834900000E+01 -1.27836020000E+01
 -1.27837160000E+01 -1.27838350000E+01 -1.27839570000E+01 -1.27840830000E+01
 -1.27842130000E+01 -1.27843480000E+01 -1.27844870000E+01 -1.27846300000E+01
 -1.27847780000E+01 -1.27849310000E+01 -1.27850880000E+01 -1.27852520000E+01
 -1.27854200000E+01 -1.27855940000E+01 -1.27857740000E+01 -1.27859600000E+01
 -1.27861520000E+01 -1.27863510000E+01 -1.27865570000E+01 -1.27867690000E+01
 -1.27869890000E+01 -1.27872170000E+01 -1.27874520000E+01 -1.27876960000E+01
 -1.27879480000E+01 -1.27882080000E+01 -1.27884780000E+01 -1.27887580000E+01
 -1.27890470000E+01 -1.27893470000E+01 -1.27896580000E+01 -1.27899790000E+01
 -1.27903120000E+01 -1.27906570000E+01 -1.27910150000E+01 -1.27913860000E+01
 -1.27917700000E+01 -1.27921690000E+01 -1.27925820000E+01 -1.27930100000E+01
 -1.27934550000E+01 -1.27939160000E+01 -1.27943940000E+01 -1.27948900000E+01
 -1.27954050000E+01 -1.27959390000E+01 -1.27964940000E+01 -1.27970700000E+01
 -1.27976680000E+01 -1.27982890000E+01 -1.27989330000E+01 -1.27996030000E+01
 -1.28002990000E+01 -1.28010220000E+01 -1.28017730000E+01 -1.28025540000E+01
 -1.28033650000E+01 -1.28042090000E+01 -1.28050850000E+01 -1.28059970000E+01
 -1.28069450000E+01 -1.28079310000E+01 -1.28089570000E+01 -1.28100230000E+01
 -1.28111330000E+01 -1.28122880000E+01 -1.28134890000E+01 -1.28147390000E+01
 -1.28160400000E+01 -1.28173950000E+01 -1.28188050000E+01 -1.28202730000E+01
 -1.28218010000E+01 -1.28233920000E+01 -1.28250500000E+01 -1.28267760000E+01
 -1.28285730000E+01 -1.28304460000E+01 -1.28323960000E+01 -1.28344280000E+01
 -1.28365450000E+01 -1.28387510000E+01 -1.28410500000E+01 -1.28434450000E+01
 -1.28459410000E+01 -1.28485430000E+01 -1.28512540000E+01 -1.28540800000E+01
 -1.28570260000E+01 -1.28600970000E+01 -1.28632980000E+01 -1.28666340000E+01
 -1.28701130000E+01 -1.28737400000E+01 -1.28775200000E+01 -1.28814620000E+01
 -1.28855720000E+01 -1.28898570000E+01 -1.28943240000E+01 -1.28989820000E+01
 -1.29038380000E+01 -1.29089010000E+01 -1.29141800000E+01 -1.29196840000E+01
 -1.29254210000E+01 -1.29314030000E+01 -1.29376390000E+01 -1.29441390000E+01
 -1.29507890000E+01 -1.29575710000E+01 -1.29646690000E+01 -1.29720940000E+01
 -1.29798600000E+01 -1.29879820000E+01 -1.29964740000E+01 -1.30053490000E+01
 -1.30146250000E+01 -1.30243150000E+01 -1.30344370000E+01 -1.30450070000E+01
 -1.30560400000E+01 -1.30675560000E+01 -1.30795700000E+01 -1.30921010000E+01
 -1.31051680000E+01 -1.31187870000E+01 -1.31329790000E+01 -1.31477610000E+01
 -1.31631540000E+01 -1.31791740000E+01 -1.31958420000E+01 -1.32131770000E+01
 -1.32311970000E+01 -1.32499200000E+01 -1.32693650000E+01 -1.32895480000E+01
 -1.33099640000E+01 -1.33310180000E+01 -1.33529600000E+01 -1.33758060000E+01
 -1.33995690000E+01 -1.34242590000E+01 -1.34498870000E+01 -1.34764570000E+01
 -1.35039710000E+01 -1.35324280000E+01 -1.35618220000E+01 -1.35921420000E+01
 -1.36233700000E+01 -1.36554840000E+01 -1.36884530000E+01 -1.37222380000E+01
 -1.37565840000E+01 -1.37914900000E+01 -1.38271290000E+01 -1.38634200000E+01
 -1.39002660000E+01 -1.39375540000E+01 -1.39751550000E+01 -1.40129180000E+01
 -1.40506710000E+01 -1.40882180000E+01 -1.41253390000E+01 -1.41617820000E+01
 -1.41978810000E+01 -1.42325240000E+01 -1.42653490000E+01 -1.42959700000E+01
 -1.43239600000E+01 -1.43488440000E+01 -1.43700940000E+01 -1.43871280000E+01
 -1.43995040000E+01 -1.44090770000E+01 -1.44111030000E+01 -1.44048250000E+01
 -1.43894250000E+01 -1.43640190000E+01 -1.43276530000E+01 -1.42792950000E+01
 -1.42238490000E+01 -1.41527250000E+01 -1.40627140000E+01 -1.39529380000E+01
 -1.38225120000E+01 -1.36705500000E+01 -1.35030830000E+01 -1.33120370000E+01
 -1.30914210000E+01 -1.28414780000E+01 -1.25626860000E+01 -1.22574840000E+01
 -1.19277610000E+01 -1.15690110000E+01 -1.11837480000E+01 -1.07750510000E+01
 -1.03408120000E+01 -9.89210160000E+00 -9.43929830000E+00 -8.98656540000E+00
 -8.53015060000E+00 -8.07933580000E+00 -7.66050640000E+00 -7.27539690000E+00
 -6.91754250000E+00 -6.59937700000E+00 -6.33009020000E+00 -6.10688100000E+00
 -5.92887810000E+00 -5.78416500000E+00 -5.66843430000E+00 -5.58592270000E+00
 -5.51106870000E+00 -5.43876870000E+00 -5.37206370000E+00 -5.29677110000E+00
 -5.21220640000E+00 -5.11929770000E+00 -5.01890750000E+00 -4.91144210000E+00
 -4.80046490000E+00 -4.68815730000E+00 -4.57512540000E+00 -4.46374450000E+00
 -4.35410200000E+00 -4.24684040000E+00 -4.14207940000E+00 -4.03982410000E+00
 -3.94009620000E+00 -3.84280570000E+00 -3.74793450000E+00 -3.65538670000E+00
 -3.56514290000E+00 -3.47710830000E+00 -3.39126560000E+00 -3.30753350000E+00
 -3.22586750000E+00 -3.14622360000E+00 -3.06853890000E+00 -2.99277750000E+00
 -2.91888700000E+00 -2.84681700000E+00 -2.77652850000E+00 -2.70797720000E+00
 -2.64111680000E+00 -2.57590560000E+00 -2.51230640000E+00 -2.45027800000E+00
 -2.38978070000E+00 -2.33077660000E+00 -2.27322910000E+00 -2.21710240000E+00
 -2.16236160000E+00 -2.10897280000E+00 -2.05690220000E+00 -2.00611700000E+00
 -1.95658580000E+00 -1.90827750000E+00 -1.86116190000E+00 -1.81520990000E+00
 -1.77039230000E+00 -1.72668120000E+00 -1.68404920000E+00 -1.64246980000E+00
 -1.60191700000E+00 -1.56236560000E+00 -1.52379080000E+00 -1.48616800000E+00
 -1.44947450000E+00 -1.41368690000E+00 -1.37878280000E+00 -1.34474060000E+00
 -1.31153870000E+00 -1.27915670000E+00 -1.24757420000E+00 -1.21677150000E+00
 -1.18672930000E+00 -1.15742900000E+00 -1.12885180000E+00 -1.10098040000E+00
 -1.07379720000E+00 -1.04728490000E+00 -1.02142730000E+00 -9.96208280000E-01
 -9.71611770000E-01 -9.47622700000E-01 -9.24225650000E-01 -9.01406470000E-01
 -8.79150790000E-01 -8.57444340000E-01 -8.36274070000E-01 -8.15626370000E-01
 -7.95488390000E-01 -7.75847720000E-01 -7.56692010000E-01 -7.38009250000E-01
 -7.19787780000E-01 -7.02016080000E-01 -6.84683340000E-01 -6.67778280000E-01
 -6.51290920000E-01 -6.35210370000E-01 -6.19526970000E-01 -6.04230840000E-01
 -5.89312220000E-01 -5.74762190000E-01 -5.60571240000E-01 -5.46730580000E-01
 -5.33231900000E-01 -5.20066380000E-01 -5.07225920000E-01 -4.94702380000E-01
 -4.82488190000E-01 -4.70575410000E-01 -4.58956910000E-01 -4.47625220000E-01
 -4.36573460000E-01 -4.25793360000E-01 -4.15284740000E-01 -4.05028040000E-01
 -3.95027860000E-01 -3.85274590000E-01 -3.75762120000E-01 -3.66484520000E-01
 -3.57435990000E-01 -3.48610860000E-01 -3.40003630000E-01 -3.31608910000E-01
 -3.23421460000E-01 -3.15436150000E-01 -3.07648010000E-01 -3.00052150000E-01
 -2.92643840000E-01 -2.85418430000E-01 -2.78371430000E-01 -2.71498410000E-01
 -2.64795090000E-01 -2.58257280000E-01 -2.51880880000E-01 -2.45661920000E-01
 -2.39596510000E-01 -2.33680850000E-01 -2.27911250000E-01 -2.22284100000E-01
 -2.16795890000E-01 -2.11443180000E-01 -2.06222630000E-01 -2.01130970000E-01
 -1.96165030000E-01 -1.91321700000E-01 -1.86597950000E-01 -1.81990830000E-01
 -1.77497460000E-01 -1.73115030000E-01 -1.68840810000E-01 -1.64672110000E-01
 -1.60606340000E-01 -1.56640960000E-01 -1.52773480000E-01 -1.49001490000E-01
 -1.45322630000E-01 -1.41734600000E-01 -1.38235160000E-01 -1.34822120000E-01
 -1.31493350000E-01
</PP_LOCAL>


<PP_NONLOCAL>
  <PP_BETA>
    1    0             Beta    L
   325
  1.89846277185E-02  1.94655302555E-02  1.99586225193E-02  2.04642144195E-02
  2.09826236646E-02  2.15141750674E-02  2.20592013979E-02  2.26180495153E-02
  2.31910629458E-02  2.37786097566E-02  2.43810529333E-02  2.49987732749E-02
  2.56321597218E-02  2.62816071355E-02  2.69475285245E-02  2.76303365675E-02
  2.83304677493E-02  2.90483540605E-02  2.97844545914E-02  3.05392294682E-02
  3.13131542030E-02  3.21067153941E-02  3.29204089584E-02  3.37547533464E-02
  3.46102730272E-02  3.54875019618E-02  3.63869959100E-02  3.73093265673E-02
  3.82550669347E-02  3.92248202312E-02  4.02191894208E-02  4.12388154088E-02
  4.22843264180E-02  4.33563963911E-02  4.44556923905E-02  4.55829117737E-02
  4.67387680368E-02  4.79239943431E-02  4.91393358629E-02  5.03855594038E-02
  5.16634569153E-02  5.29738393428E-02  5.43175279445E-02  5.56953914371E-02
  5.71082834175E-02  5.85571099207E-02  6.00427907300E-02  6.15662666936E-02
  6.31285037053E-02  6.47305006505E-02  6.63732721685E-02  6.80578563805E-02
  6.97853371004E-02  7.15568122012E-02  7.33734021658E-02  7.52362765001E-02
  7.71466161269E-02  7.91056356346E-02  8.11146013767E-02  8.31747952445E-02
  8.52875247662E-02  8.74541558935E-02  8.96760755506E-02  9.19546957278E-02
  9.42914911958E-02  9.66879608113E-02  9.91456576875E-02  1.01666150999E-01
  1.04251068777E-01  1.06902088673E-01  1.09620906911E-01  1.12409288964E-01
  1.15269053185E-01  1.18202041395E-01  1.21210156347E-01  1.24295363706E-01
  1.27459659890E-01  1.30705113781E-01  1.34033854762E-01  1.37448054101E-01
  1.40949939280E-01  1.44541825781E-01  1.48226035755E-01  1.52005048104E-01
  1.55881340543E-01  1.59857454590E-01  1.63936033937E-01  1.68119803592E-01
  1.72411517748E-01  1.76814072319E-01  1.81330361257E-01  1.85963458876E-01
  1.90716446246E-01  1.95592550734E-01  2.00595042893E-01  2.05727292701E-01
  2.10992828199E-01  2.16395222722E-01  2.21938128181E-01  2.27625382393E-01
  2.33460884845E-01  2.39448677222E-01  2.45592884469E-01  2.51897781168E-01
  2.58367748787E-01  2.65007331269E-01  2.71821236637E-01  2.78814212051E-01
  2.85991216458E-01  2.93357424301E-01  3.00918032005E-01  3.08678518701E-01
  3.16644476010E-01  3.24821692831E-01  3.33216142562E-01  3.41833947476E-01
  3.50681474564E-01  3.59765326182E-01  3.69092199730E-01  3.78669150969E-01
  3.88503405136E-01  3.98602427466E-01  4.08973909435E-01  4.19625800001E-01
  4.30566434079E-01  4.41804313537E-01  4.53348180540E-01  4.65207277228E-01
  4.77390996322E-01  4.89909104951E-01  5.02771687730E-01  5.15989296011E-01
  5.29572719174E-01  5.43533212452E-01  5.57882438476E-01  5.72632432151E-01
  5.87795634419E-01  6.03385115411E-01  6.19414231871E-01  6.35896859268E-01
  6.52853798871E-01  6.70301806924E-01  6.88248308044E-01  7.06709146531E-01
  7.25700964752E-01  7.45241067392E-01  7.65347302190E-01  7.86038030955E-01
  8.07332701776E-01  8.29251005147E-01  8.51813769761E-01  8.75042362414E-01
  8.98958810193E-01  9.23586383787E-01  9.48948657951E-01  9.75070474092E-01
  1.00197739145E+00  1.02969567866E+00  1.05825284638E+00  1.08767719205E+00
  1.11799799968E+00  1.14924517213E+00  1.18144992818E+00  1.21464462859E+00
  1.24886195673E+00  1.28413595433E+00  1.32050152471E+00  1.35799411604E+00
  1.39664507576E+00  1.43649520130E+00  1.47758501605E+00  1.51995339383E+00
  1.56363930091E+00  1.60868201282E+00  1.65512142150E+00  1.70299659835E+00
  1.75234673291E+00  1.80321026752E+00  1.85562480530E+00  1.90962630645E+00
  1.96524863761E+00  2.02252359234E+00  2.08147947006E+00  2.14214048043E+00
  2.20463622392E+00  2.26895854796E+00  2.33498824550E+00  2.40272147452E+00
  2.47214456233E+00  2.54323247635E+00  2.61594735046E+00  2.69023562830E+00
  2.76602584046E+00  2.84322560956E+00  2.92171962062E+00  3.00136359748E+00
  3.08305839824E+00  3.16525741920E+00  3.24767500074E+00  3.33000638844E+00
  3.41189996435E+00  3.49295002394E+00  3.57269029508E+00  3.65058809230E+00
  3.72620452174E+00  3.80108112917E+00  3.87112167183E+00  3.93545007098E+00
  3.99310561942E+00  4.04303870096E+00  4.08410753760E+00  4.11507440089E+00
  4.13764352530E+00  4.14681333204E+00  4.13998236913E+00  4.11567830341E+00
  4.07243322315E+00  4.00881548608E+00  3.92533012335E+00  3.81889055187E+00
  3.68695731708E+00  3.52888438652E+00  3.34442535020E+00  3.13292739312E+00
  2.89470113368E+00  2.63444834598E+00  2.35423019140E+00  2.05692200228E+00
  1.73852834127E+00  1.41244228877E+00  1.09176354040E+00  7.81206108170E-01
  4.79295447511E-01  1.94383327320E-01 -5.15706326341E-02 -2.56195404902E-01
 -4.21164340568E-01 -5.41555518226E-01 -6.14643277002E-01 -6.43194790635E-01
 -6.25286277532E-01 -5.83100240109E-01 -5.20993844165E-01 -4.34940696265E-01
 -3.50266074427E-01 -2.71714694240E-01 -1.97135877830E-01 -1.36511775051E-01
 -8.98859773821E-02 -5.60524017982E-02 -3.22017462662E-02 -1.77559564038E-02
 -9.07975938206E-03 -3.99783487109E-03 -1.88175971632E-03 -6.64836289585E-04
 -2.64072013338E-04 -7.92592181920E-05 -2.34531435002E-05 -6.00907843814E-06
 -1.17616839990E-06 -1.70640758973E-07  0.00000000000E+00  0.00000000000E+00
  0.00000000000E+00  0.00000000000E+00  0.00000000000E+00  0.00000000000E+00
  0.00000000000E+00  0.00000000000E+00  0.00000000000E+00  0.00000000000E+00
  0.00000000000E+00  0.00000000000E+00  0.00000000000E+00  0.00000000000E+00
  0.00000000000E+00  0.00000000000E+00  0.00000000000E+00  0.00000000000E+00
  0.00000000000E+00  0.00000000000E+00  0.00000000000E+00  0.00000000000E+00
  0.00000000000E+00  0.00000000000E+00  0.00000000000E+00  0.00000000000E+00
  0.00000000000E+00  0.00000000000E+00  0.00000000000E+00  0.00000000000E+00