
     Program PWSCF v.> 4.2      starts on 19Jan2011 at 16: 3:41 

     This program is part of the open-source Quantum ESPRESSO suite
     for quantum simulation of materials; please cite
         "P. Giannozzi et al., J. Phys.:Condens. Matter 21 395502 (2009);
          URL http://www.quantum-espresso.org", 
     in publications or presentations arising from this work. More details at
     http://www.quantum-espresso.org/wiki/index.php/Citing_Quantum-ESPRESSO

     Current dimensions of program PWSCF are:
     Max number of different atomic species (ntypx) = 10
     Max number of k-points (npk) =  40000
     Max angular momentum in pseudopotentials (lmaxx) =  3
     Waiting for input...
     file H.pz-vbc.UPF: wavefunction(s)  1S renormalized

   Stick Mesh
   ----------
   nst =  5721,  nstw =  2061, nsts =  5721
               n.st   n.stw   n.sts    n.g    n.gw   n.gs
   min        5721    2061    5721   75931   16255   75931
   max        5721    2061    5721   75931   16255   75931
       5721    2061    5721   75931   16255   75931


     Title: 
     chain                                                                      


     bravais-lattice index     =            8
     lattice parameter (a_0)   =      20.0000  a.u.
     unit-cell volume          =    1866.7920 (a.u.)^3
     number of atoms/cell      =            4
     number of atomic types    =            2
     number of electrons       =        10.00
     number of Kohn-Sham states=           32
     kinetic-energy cutoff     =      45.0000  Ry
     charge density cutoff     =     180.0000  Ry
     convergence threshold     =      1.0E-06
     mixing beta               =       0.7000
     number of iterations used =            8  plain     mixing
     Exchange-correlation      =  SLA  PZ   NOGX NOGC (1100)
     EXX-fraction              =        0.00

     celldm(1)=  20.000000  celldm(2)=   1.000000  celldm(3)=   0.233349
     celldm(4)=   0.000000  celldm(5)=   0.000000  celldm(6)=   0.000000

     crystal axes: (cart. coord. in units of a_0)
               a(1) = (   1.000000   0.000000   0.000000 )  
               a(2) = (   0.000000   1.000000   0.000000 )  
               a(3) = (   0.000000   0.000000   0.233349 )  

     reciprocal axes: (cart. coord. in units 2 pi/a_0)
               b(1) = (  1.000000  0.000000  0.000000 )  
               b(2) = (  0.000000  1.000000  0.000000 )  
               b(3) = (  0.000000  0.000000  4.285427 )  


     PseudoPot. # 1 for C  read from file C.pz-vbc.UPF
     MD5 check sum: ab53dd623bfeb79c5a7b057bc96eae20
     Pseudo is Norm-conserving, Zval =  4.0
     Generated by new atomic code, or converted to UPF format
     Using radial grid of  269 points,  1 beta functions with: 
                l(1) =   0

     PseudoPot. # 2 for H  read from file H.pz-vbc.UPF
     MD5 check sum: 8528f6f0a1c5b15e969fb0945a427073
     Pseudo is Norm-conserving, Zval =  1.0
     Generated by new atomic code, or converted to UPF format
     Using radial grid of  131 points,  0 beta functions with: 

     atomic species   valence    mass     pseudopotential
        C              4.00     1.00000     C ( 1.00)
        H              1.00     1.00000     H ( 1.00)

     No symmetry found

   Cartesian axes

     site n.     atom                  positions (a_0 units)
         1           C   tau(  1) = (   0.0000000   0.0000000  -0.0553485  )
         2           C   tau(  2) = (   0.0612594   0.0000000   0.0553488  )
         3           H   tau(  3) = (  -0.1017609   0.0000000  -0.0557749  )
         4           H   tau(  4) = (   0.1630203   0.0000000   0.0557752  )

     number of k points=    30
                       cart. coord. in units 2pi/a_0
        k(    1) = (   0.0000000   0.0000000   0.0714238), wk =   0.0666667
        k(    2) = (   0.0000000   0.0000000   0.2142713), wk =   0.0666667
        k(    3) = (   0.0000000   0.0000000   0.3571189), wk =   0.0666667
        k(    4) = (   0.0000000   0.0000000   0.4999664), wk =   0.0666667
        k(    5) = (   0.0000000   0.0000000   0.6428140), wk =   0.0666667
        k(    6) = (   0.0000000   0.0000000   0.7856615), wk =   0.0666667
        k(    7) = (   0.0000000   0.0000000   0.9285091), wk =   0.0666667
        k(    8) = (   0.0000000   0.0000000   1.0713566), wk =   0.0666667
        k(    9) = (   0.0000000   0.0000000   1.2142042), wk =   0.0666667
        k(   10) = (   0.0000000   0.0000000   1.3570517), wk =   0.0666667
        k(   11) = (   0.0000000   0.0000000   1.4998993), wk =   0.0666667
        k(   12) = (   0.0000000   0.0000000   1.6427468), wk =   0.0666667
        k(   13) = (   0.0000000   0.0000000   1.7855944), wk =   0.0666667
        k(   14) = (   0.0000000   0.0000000   1.9284419), wk =   0.0666667
        k(   15) = (   0.0000000   0.0000000   2.0712895), wk =   0.0666667
        k(   16) = (   0.0000000   0.0000000   2.2141371), wk =   0.0666667
        k(   17) = (   0.0000000   0.0000000   2.3569846), wk =   0.0666667
        k(   18) = (   0.0000000   0.0000000   2.4998322), wk =   0.0666667
        k(   19) = (   0.0000000   0.0000000   2.6426797), wk =   0.0666667
        k(   20) = (   0.0000000   0.0000000   2.7855273), wk =   0.0666667
        k(   21) = (   0.0000000   0.0000000   2.9283748), wk =   0.0666667
        k(   22) = (   0.0000000   0.0000000   3.0712224), wk =   0.0666667
        k(   23) = (   0.0000000   0.0000000   3.2140699), wk =   0.0666667
        k(   24) = (   0.0000000   0.0000000   3.3569175), wk =   0.0666667
        k(   25) = (   0.0000000   0.0000000   3.4997650), wk =   0.0666667
        k(   26) = (   0.0000000   0.0000000   3.6426126), wk =   0.0666667
        k(   27) = (   0.0000000   0.0000000   3.7854601), wk =   0.0666667
        k(   28) = (   0.0000000   0.0000000   3.9283077), wk =   0.0666667
        k(   29) = (   0.0000000   0.0000000   4.0711552), wk =   0.0666667
        k(   30) = (   0.0000000   0.0000000   4.2140028), wk =   0.0666667

     G cutoff = 1823.7813  (  75931 G-vectors)     FFT grid: ( 90, 90, 20)

     Largest allocated arrays     est. size (Mb)     dimensions
        Kohn-Sham Wavefunctions         4.69 Mb     (   9602,  32)
        NL pseudopotentials             0.29 Mb     (   9602,   2)
        Each V/rho on FFT grid          2.47 Mb     ( 162000)
        Each G-vector array             0.58 Mb     (  75931)
        G-vector shells                 0.03 Mb     (   4164)
     Largest temporary arrays     est. size (Mb)     dimensions
        Auxiliary wavefunctions        18.75 Mb     (   9602, 128)
        Each subspace H/S matrix        0.25 Mb     (    128, 128)
        Each <psi_i|beta_j> matrix      0.00 Mb     (      2,  32)
        Arrays for rho mixing          19.78 Mb     ( 162000,   8)

     Initial potential from superposition of free atoms
     Check: negative starting charge=   -0.002674

     starting charge    9.99989, renormalised to   10.00000

     negative rho (up, down):  0.267E-02 0.000E+00
     Starting wfc are   10 atomic +   22 random wfc

     total cpu time spent up to now is     23.85 secs

     Self-consistent Calculation

     iteration #  1     ecut=    45.00 Ry     beta=0.70
     Davidson diagonalization with overlap
     ethr =  1.00E-02,  avg # of iterations =  6.4

     negative rho (up, down):  0.766E-03 0.000E+00

     total cpu time spent up to now is    147.63 secs

     total energy              =     -24.84673525 Ry
     Harris-Foulkes estimate   =     -25.19546823 Ry
     estimated scf accuracy    <       0.51765534 Ry

     iteration #  2     ecut=    45.00 Ry     beta=0.70
     Davidson diagonalization with overlap
     ethr =  5.18E-03,  avg # of iterations =  2.9

     negative rho (up, down):  0.290E-03 0.000E+00

     total cpu time spent up to now is    204.57 secs

     total energy              =     -24.95780783 Ry
     Harris-Foulkes estimate   =     -25.00950754 Ry
     estimated scf accuracy    <       0.08742351 Ry

     iteration #  3     ecut=    45.00 Ry     beta=0.70
     Davidson diagonalization with overlap
     ethr =  8.74E-04,  avg # of iterations =  2.4

     negative rho (up, down):  0.255E-04 0.000E+00

     total cpu time spent up to now is    260.68 secs

     total energy              =     -24.97795892 Ry
     Harris-Foulkes estimate   =     -24.97913643 Ry
     estimated scf accuracy    <       0.00233174 Ry

     iteration #  4     ecut=    45.00 Ry     beta=0.70
     Davidson diagonalization with overlap
     ethr =  2.33E-05,  avg # of iterations =  6.2

     negative rho (up, down):  0.120E-05 0.000E+00

     total cpu time spent up to now is    336.12 secs

     total energy              =     -24.97839066 Ry
     Harris-Foulkes estimate   =     -24.97839555 Ry
     estimated scf accuracy    <       0.00001709 Ry

     iteration #  5     ecut=    45.00 Ry     beta=0.70
     Davidson diagonalization with overlap
     ethr =  1.71E-07,  avg # of iterations =  2.7

     total cpu time spent up to now is    396.36 secs

     End of self-consistent calculation

          k = 0.0000 0.0000 0.0714 (  9401 PWs)   bands (ev):

   -20.0502 -13.5154  -8.5051  -8.4703  -7.5499   0.1925   0.4359   0.8272
     1.3071   1.3639   1.9847   2.5451   2.9519   3.5246   3.5356   4.1851
     4.8185   5.1480   5.4600   6.0230   6.1302   6.6650   6.6705   6.7827
     7.0860   7.1420   7.3757   8.9328   9.4943  10.0932  10.2246  10.6678

          k = 0.0000 0.0000 0.2143 (  9438 PWs)   bands (ev):

   -20.0137 -13.4815  -8.6162  -8.4218  -7.6049   0.2388   0.4906   0.8583
     1.3579   1.4181   2.0323   2.6017   3.0062   3.5584   3.5777   4.1795
     4.9759   5.2025   5.5134   6.0737   6.2330   6.7136   6.7252   6.8322
     7.1363   7.1423   7.4300   8.9638   9.5174   9.9344  10.2784  10.6556

          k = 0.0000 0.0000 0.3571 (  9470 PWs)   bands (ev):

   -19.9407 -13.4142  -8.8503  -8.3249  -7.6815   0.3307   0.5987   0.9169
     1.4593   1.5266   2.1268   2.7139   3.1146   3.6010   3.6838   4.1800
     5.2423   5.3115   5.6203   6.1761   6.4494   6.8039   6.8344   6.9346
     7.1303   7.2564   7.5378   8.9993   9.5080   9.8060  10.3858  10.6293

          k = 0.0000 0.0000 0.5000 (  9462 PWs)   bands (ev):

   -19.8312 -13.3138  -9.2037  -8.1794  -7.7530   0.4664   0.7585   0.9939
     1.6106   1.6893   2.2671   2.8804   3.2770   3.6574   3.8419   4.1921
     5.4751   5.5537   5.7809   6.3298   6.7753   6.9011   6.9981   7.1083
     7.1573   7.4351   7.6988   8.9690   9.4946   9.8726  10.5451  10.6076

          k = 0.0000 0.0000 0.6428 (  9498 PWs)   bands (ev):

   -19.6860 -13.1843  -9.6644  -7.9871  -7.8192   0.6428   0.9685   1.0719
     1.8104   1.9060   2.4507   3.1003   3.4924   3.7199   4.0466   4.2228
     5.6930   5.8673   5.9951   6.5340   6.9283   7.1030   7.2163   7.2997
     7.4162   7.7056   7.9126   8.8926   9.6181  10.0366  10.6030  10.7631

          k = 0.0000 0.0000 0.7857 (  9502 PWs)   bands (ev):

   -19.5050 -13.0284 -10.1915  -7.8874  -7.7463   0.8549   1.1226   1.2279
     2.0564   2.1770   2.6753   3.3733   3.7428   3.8047   4.2240   4.3561
     5.9653   6.1821   6.2590   6.7874   6.9189   7.3681   7.4888   7.5488
     7.7874   8.1189   8.1794   8.9017   9.8305  10.2608  10.6539  11.0295

          k = 0.0000 0.0000 0.9285 (  9514 PWs)   bands (ev):

   -19.2880 -12.8573 -10.7486  -7.9704  -7.4593   1.0951   1.0995   1.5360
     2.3448   2.5020   2.9391   3.6991   3.8543   4.0972   4.3278   4.6592
     6.2919   6.5164   6.5589   6.9469   7.0885   7.6432   7.8156   7.8677
     8.1440   8.4986   8.5301   9.0422  10.0875  10.5660  10.7769  11.3474

          k = 0.0000 0.0000 1.0714 (  9542 PWs)   bands (ev):

   -19.0376 -12.7020 -11.2865  -8.0796  -7.1266   0.9530   1.3534   1.8923
     2.6714   2.8808   3.2451   3.9850   4.0775   4.4747   4.4892   5.0285
     6.6724   6.8679   6.8879   7.0596   7.4347   7.9581   8.1963   8.2461
     8.5318   8.8411   8.8698   9.0907  10.4007  10.9790  10.9885  11.7262

          k = 0.0000 0.0000 1.2142 (  9550 PWs)   bands (ev):

   -18.7520 -12.6823 -11.6718  -8.2210  -6.7494   0.6555   1.6203   2.2964
     3.0351   3.3134   3.6034   4.2032   4.5079   4.7430   4.9075   5.4520
     7.1055   7.1207   7.2785   7.3018   7.8219   8.3230   8.6305   8.6813
     8.8687   8.9660   9.1521   9.2919  10.7729  11.2492  11.3923  11.6277

          k = 0.0000 0.0000 1.3571 (  9538 PWs)   bands (ev):

   -18.4335 -12.9946 -11.6976  -8.3989  -6.3282   0.2200   1.8919   2.7479
     3.4421   3.7996   4.0254   4.5261   4.9888   5.0961   5.3942   5.9267
     7.1266   7.5689   7.6243   7.7603   8.2364   8.6835   8.7633   9.1169
     9.1721   9.4455   9.4579   9.7630  10.9068  11.3977  11.5286  11.5503

          k = 0.0000 0.0000 1.4999 (  9550 PWs)   bands (ev):

   -18.0821 -13.5098 -11.4886  -8.6175  -5.8678  -0.3217   2.1747   3.2452
     3.9047   4.3389   4.5153   4.9483   5.5120   5.5406   5.9341   6.4492
     6.7481   7.9982   8.1485   8.2597   8.6054   8.8797   9.1691   9.6391
     9.6511   9.7174   9.9859  10.2749  10.6992  10.8997  11.3751  11.5816

          k = 0.0000 0.0000 1.6427 (  9546 PWs)   bands (ev):

   -17.7012 -14.0695 -11.1994  -8.8733  -5.3709  -0.9224   2.4840   3.7866
     4.4311   4.9309   5.0684   5.4579   5.9115   6.0712   6.3395   6.5264
     7.0082   8.4814   8.5379   8.7429   8.7866   9.1921   9.5514   9.9414
    10.0883  10.1966  10.3041  10.5325  10.5667  10.7231  10.7281  10.9808

          k = 0.0000 0.0000 1.7856 (  9550 PWs)   bands (ev):

   -17.2962 -14.6220 -10.8762  -9.1628  -4.8448  -1.5492   2.8357   4.3672
     5.0198   5.4391   5.5747   5.6830   6.0432   6.6704   6.8114   7.1689
     7.4861   8.1136   8.8075   8.9577   9.3215   9.3825   9.7200   9.7969
     9.9362   9.9980  10.0759  10.5143  10.7503  10.8312  10.9550  10.9778

          k = 0.0000 0.0000 1.9284 (  9590 PWs)   bands (ev):

   -16.8818 -15.1413 -10.5396  -9.4777  -4.3091  -2.1642   3.2392   4.7840
     5.0361   5.6829   6.2681   6.2878   6.6934   7.1910   7.3290   7.4613
     7.8509   8.0322   8.4485   8.6291   8.7981   9.0815   9.6028   9.7233
     9.9383  10.0416  10.1087  10.4303  10.6327  10.7035  11.0571  11.2118

          k = 0.0000 0.0000 2.0713 (  9602 PWs)   bands (ev):

   -16.5247 -15.5513 -10.2122  -9.7935  -3.8466  -2.6680   3.6899   4.2575
     5.6502   6.2538   6.4207   7.0030   7.1637   7.2531   7.3681   7.8630
     7.9466   8.0457   8.1639   8.2798   8.6960   8.8437   8.9655   9.2728
     9.4102   9.8859  10.5456  10.7742  10.8639  11.1751  11.2213  11.5279

          k = 0.0000 0.0000 2.2141 (  9602 PWs)   bands (ev):

   -16.5247 -15.5513 -10.2122  -9.7935  -3.8466  -2.6680   3.6899   4.2575
     5.6502   6.2538   6.4207   7.0030   7.1637   7.2531   7.3681   7.8630
     7.9466   8.0458   8.1638   8.2798   8.6960   8.8437   8.9654   9.2728
     9.4102   9.8859  10.5457  10.7742  10.8639  11.1751  11.2213  11.5279

          k = 0.0000 0.0000 2.3570 (  9590 PWs)   bands (ev):

   -16.8818 -15.1413 -10.5396  -9.4777  -4.3091  -2.1642   3.2392   4.7840
     5.0361   5.6829   6.2681   6.2878   6.6934   7.1910   7.3290   7.4613
     7.8509   8.0322   8.4485   8.6291   8.7981   9.0815   9.6028   9.7233
     9.9383  10.0416  10.1087  10.4303  10.6327  10.7034  11.0570  11.2119

          k = 0.0000 0.0000 2.4998 (  9550 PWs)   bands (ev):

   -17.2962 -14.6220 -10.8762  -9.1628  -4.8448  -1.5492   2.8357   4.3672
     5.0198   5.4391   5.5747   5.6830   6.0432   6.6704   6.8114   7.1689
     7.4861   8.1136   8.8075   8.9577   9.3215   9.3825   9.7200   9.7969
     9.9362   9.9980  10.0759  10.5143  10.7503  10.8312  10.9550  10.9778

          k = 0.0000 0.0000 2.6427 (  9546 PWs)   bands (ev):

   -17.7012 -14.0695 -11.1994  -8.8733  -5.3709  -0.9224   2.4840   3.7866
     4.4311   4.9309   5.0684   5.4579   5.9115   6.0712   6.3395   6.5264
     7.0082   8.4814   8.5379   8.7429   8.7866   9.1921   9.5514   9.9414
    10.0883  10.1966  10.3041  10.5325  10.5667  10.7231  10.7281  10.9808

          k = 0.0000 0.0000 2.7855 (  9550 PWs)   bands (ev):

   -18.0821 -13.5098 -11.4886  -8.6175  -5.8678  -0.3217   2.1747   3.2452
     3.9047   4.3389   4.5153   4.9483   5.5120   5.5406   5.9341   6.4492
     6.7481   7.9982   8.1485   8.2597   8.6054   8.8797   9.1691   9.6391
     9.6511   9.7173   9.9859  10.2749  10.6992  10.8997  11.3751  11.5816

          k = 0.0000 0.0000 2.9284 (  9538 PWs)   bands (ev):

   -18.4335 -12.9946 -11.6976  -8.3989  -6.3282   0.2200   1.8919   2.7479
     3.4421   3.7996   4.0254   4.5261   4.9888   5.0961   5.3942   5.9267
     7.1266   7.5689   7.6243   7.7603   8.2364   8.6835   8.7633   9.1169
     9.1720   9.4455   9.4579   9.7630  10.9068  11.3976  11.5286  11.5503

          k = 0.0000 0.0000 3.0712 (  9550 PWs)   bands (ev):

   -18.7520 -12.6823 -11.6718  -8.2210  -6.7494   0.6555   1.6203   2.2964
     3.0351   3.3134   3.6034   4.2032   4.5079   4.7430   4.9075   5.4520
     7.1055   7.1207   7.2785   7.3018   7.8219   8.3230   8.6305   8.6813
     8.8686   8.9660   9.1521   9.2919  10.7730  11.2492  11.3924  11.6278

          k = 0.0000 0.0000 3.2141 (  9542 PWs)   bands (ev):

   -19.0376 -12.7020 -11.2865  -8.0796  -7.1266   0.9530   1.3534   1.8923
     2.6714   2.8808   3.2451   3.9850   4.0775   4.4747   4.4892   5.0285
     6.6724   6.8679   6.8879   7.0596   7.4347   7.9581   8.1963   8.2461
     8.5318   8.8411   8.8698   9.0907  10.4007  10.9791  10.9885  11.7264

          k = 0.0000 0.0000 3.3569 (  9514 PWs)   bands (ev):

   -19.2880 -12.8573 -10.7486  -7.9704  -7.4593   1.0951   1.0995   1.5360
     2.3448   2.5020   2.9391   3.6991   3.8543   4.0972   4.3278   4.6592
     6.2919   6.5164   6.5589   6.9469   7.0885   7.6432   7.8156   7.8677
     8.1440   8.4986   8.5301   9.0422  10.0874  10.5659  10.7769  11.3474

          k = 0.0000 0.0000 3.4998 (  9502 PWs)   bands (ev):

   -19.5050 -13.0284 -10.1915  -7.8874  -7.7463   0.8549   1.1226   1.2279
     2.0564   2.1770   2.6753   3.3733   3.7428   3.8047   4.2240   4.3561
     5.9653   6.1821   6.2590   6.7874   6.9189   7.3681   7.4888   7.5488
     7.7874   8.1190   8.1794   8.9017   9.8305  10.2608  10.6539  11.0295

          k = 0.0000 0.0000 3.6426 (  9498 PWs)   bands (ev):

   -19.6860 -13.1843  -9.6644  -7.9871  -7.8192   0.6428   0.9685   1.0719
     1.8104   1.9060   2.4507   3.1003   3.4924   3.7199   4.0466   4.2228
     5.6930   5.8673   5.9951   6.5340   6.9283   7.1030   7.2163   7.2997
     7.4162   7.7056   7.9126   8.8927   9.6181  10.0366  10.6030  10.7631

          k = 0.0000 0.0000 3.7855 (  9462 PWs)   bands (ev):

   -19.8312 -13.3138  -9.2037  -8.1794  -7.7530   0.4664   0.7585   0.9939
     1.6106   1.6893   2.2671   2.8804   3.2770   3.6574   3.8419   4.1921
     5.4751   5.5537   5.7809   6.3298   6.7753   6.9011   6.9981   7.1083
     7.1573   7.4351   7.6989   8.9690   9.4946   9.8726  10.5451  10.6076

          k = 0.0000 0.0000 3.9283 (  9470 PWs)   bands (ev):

   -19.9407 -13.4142  -8.8503  -8.3249  -7.6815   0.3307   0.5987   0.9169
     1.4593   1.5266   2.1268   2.7139   3.1146   3.6010   3.6838   4.1800
     5.2423   5.3115   5.6203   6.1761   6.4494   6.8039   6.8344   6.9346
     7.1303   7.2564   7.5378   8.9993   9.5080   9.8060  10.3858  10.6293

          k = 0.0000 0.0000 4.0712 (  9438 PWs)   bands (ev):

   -20.0137 -13.4815  -8.6162  -8.4218  -7.6049   0.2388   0.4906   0.8583
     1.3579   1.4181   2.0323   2.6017   3.0062   3.5584   3.5777   4.1795
     4.9759   5.2025   5.5134   6.0737   6.2330   6.7136   6.7252   6.8322
     7.1363   7.1423   7.4300   8.9638   9.5174   9.9345  10.2783  10.6533

          k = 0.0000 0.0000 4.2140 (  9401 PWs)   bands (ev):

   -20.0502 -13.5154  -8.5051  -8.4703  -7.5499   0.1925   0.4359   0.8272
     1.3071   1.3639   1.9847   2.5451   2.9519   3.5246   3.5356   4.1851
     4.8185   5.1480   5.4600   6.0230   6.1302   6.6650   6.6705   6.7827
     7.0860   7.1420   7.3757   8.9328   9.4944  10.0932  10.2246  10.6673

     highest occupied, lowest unoccupied level (ev):    -3.8466   -2.6680

!    total energy              =     -24.97839462 Ry
     Harris-Foulkes estimate   =     -24.97839457 Ry
     estimated scf accuracy    <       0.00000039 Ry

     The total energy is the sum of the following terms:

     one-electron contribution =     -91.44251881 Ry
     hartree contribution      =      46.85579087 Ry
     xc contribution           =      -8.22563650 Ry
     ewald contribution        =      27.83396982 Ry

     convergence has been achieved in   5 iterations

     Forces acting on atoms (Ry/au):

     atom   1 type  1   force =     0.02002381    0.00000204   -0.06969117
     atom   2 type  1   force =    -0.02000030    0.00000144    0.06967477
     atom   3 type  2   force =    -0.03117620   -0.00000179    0.00027931
     atom   4 type  2   force =     0.03115269   -0.00000170   -0.00026291

     Total force =     0.111602     Total SCF correction =     0.000338

     Writing output data file chain.save

     init_run     :     21.30s CPU     23.58s WALL (       1 calls)
     electrons    :    372.83s CPU    372.51s WALL (       1 calls)
     forces       :      1.67s CPU      1.98s WALL (       1 calls)

     Called by init_run:
     wfcinit      :     20.64s CPU     22.80s WALL (       1 calls)
     potinit      :      0.19s CPU      0.21s WALL (       1 calls)

     Called by electrons:
     c_bands      :    330.35s CPU    327.29s WALL (       5 calls)
     sum_band     :     41.88s CPU     43.76s WALL (       5 calls)
     v_of_rho     :      0.39s CPU      0.42s WALL (       6 calls)
     mix_rho      :      0.16s CPU      0.56s WALL (       5 calls)

     Called by c_bands:
     init_us_2    :      1.12s CPU      1.43s WALL (     360 calls)
     cegterg      :    320.48s CPU    308.69s WALL (     150 calls)

     Called by *egterg:
     h_psi        :    217.92s CPU    220.51s WALL (     798 calls)
     g_psi        :      5.83s CPU      5.89s WALL (     618 calls)
     cdiaghg      :      7.25s CPU      8.33s WALL (     768 calls)

     Called by h_psi:
     add_vuspsi   :      1.81s CPU      1.86s WALL (     798 calls)

     General routines
     calbec       :      2.10s CPU      2.28s WALL (     828 calls)
     fft          :      0.28s CPU      0.29s WALL (      25 calls)
     fftw         :    222.65s CPU    224.94s WALL (   33760 calls)
     davcio       :     14.65s CPU     25.98s WALL (     510 calls)


     PWSCF        :  6m35.93s CPU     6m38.52s WALL


   This run was terminated on:  16:10:20  19Jan2011            

=------------------------------------------------------------------------------=
   JOB DONE.
=------------------------------------------------------------------------------=
