
     Program PWSCF v.> 4.2      starts on 19Jan2011 at 16:47: 8 

     This program is part of the open-source Quantum ESPRESSO suite
     for quantum simulation of materials; please cite
         "P. Giannozzi et al., J. Phys.:Condens. Matter 21 395502 (2009);
          URL http://www.quantum-espresso.org", 
     in publications or presentations arising from this work. More details at
     http://www.quantum-espresso.org/wiki/index.php/Citing_Quantum-ESPRESSO

     Current dimensions of program PWSCF are:
     Max number of different atomic species (ntypx) = 10
     Max number of k-points (npk) =  40000
     Max angular momentum in pseudopotentials (lmaxx) =  3
     Waiting for input...
     file H.pz-vbc.UPF: wavefunction(s)  1S renormalized

   Stick Mesh
   ----------
   nst =  5721,  nstw =  2053, nsts =  5721
               n.st   n.stw   n.sts    n.g    n.gw   n.gs
   min        5721    2053    5721   75931   16079   75931
   max        5721    2053    5721   75931   16079   75931
       5721    2053    5721   75931   16079   75931


     Title: 
     chain                                                                      


     bravais-lattice index     =            8
     lattice parameter (a_0)   =      20.0000  a.u.
     unit-cell volume          =    1866.7920 (a.u.)^3
     number of atoms/cell      =            4
     number of atomic types    =            2
     number of electrons       =        10.00
     number of Kohn-Sham states=           32
     kinetic-energy cutoff     =      45.0000  Ry
     charge density cutoff     =     180.0000  Ry
     convergence threshold     =      1.0E-06
     mixing beta               =       0.7000
     number of iterations used =            8  plain     mixing
     Exchange-correlation      =  SLA  PZ   NOGX NOGC (1100)
     EXX-fraction              =        0.00

     celldm(1)=  20.000000  celldm(2)=   1.000000  celldm(3)=   0.233349
     celldm(4)=   0.000000  celldm(5)=   0.000000  celldm(6)=   0.000000

     crystal axes: (cart. coord. in units of a_0)
               a(1) = (   1.000000   0.000000   0.000000 )  
               a(2) = (   0.000000   1.000000   0.000000 )  
               a(3) = (   0.000000   0.000000   0.233349 )  

     reciprocal axes: (cart. coord. in units 2 pi/a_0)
               b(1) = (  1.000000  0.000000  0.000000 )  
               b(2) = (  0.000000  1.000000  0.000000 )  
               b(3) = (  0.000000  0.000000  4.285427 )  


     PseudoPot. # 1 for C  read from file C.pz-vbc.UPF
     MD5 check sum: ab53dd623bfeb79c5a7b057bc96eae20
     Pseudo is Norm-conserving, Zval =  4.0
     Generated by new atomic code, or converted to UPF format
     Using radial grid of  269 points,  1 beta functions with: 
                l(1) =   0

     PseudoPot. # 2 for H  read from file H.pz-vbc.UPF
     MD5 check sum: 8528f6f0a1c5b15e969fb0945a427073
     Pseudo is Norm-conserving, Zval =  1.0
     Generated by new atomic code, or converted to UPF format
     Using radial grid of  131 points,  0 beta functions with: 

     atomic species   valence    mass     pseudopotential
        C              4.00     1.00000     C ( 1.00)
        H              1.00     1.00000     H ( 1.00)

     No symmetry found

   Cartesian axes

     site n.     atom                  positions (a_0 units)
         1           C   tau(  1) = (   0.0000000   0.0000000  -0.0553485  )
         2           C   tau(  2) = (   0.0612594   0.0000000   0.0553488  )
         3           H   tau(  3) = (  -0.1017609   0.0000000  -0.0557749  )
         4           H   tau(  4) = (   0.1630203   0.0000000   0.0557752  )

     number of k points=    30
                       cart. coord. in units 2pi/a_0
        k(    1) = (   0.0000000   0.0000000   0.0000000), wk =   0.0666667
        k(    2) = (   0.0000000   0.0000000   0.1428476), wk =   0.0666667
        k(    3) = (   0.0000000   0.0000000   0.2856951), wk =   0.0666667
        k(    4) = (   0.0000000   0.0000000   0.4285427), wk =   0.0666667
        k(    5) = (   0.0000000   0.0000000   0.5713902), wk =   0.0666667
        k(    6) = (   0.0000000   0.0000000   0.7142378), wk =   0.0666667
        k(    7) = (   0.0000000   0.0000000   0.8570853), wk =   0.0666667
        k(    8) = (   0.0000000   0.0000000   0.9999329), wk =   0.0666667
        k(    9) = (   0.0000000   0.0000000   1.1427804), wk =   0.0666667
        k(   10) = (   0.0000000   0.0000000   1.2856280), wk =   0.0666667
        k(   11) = (   0.0000000   0.0000000   1.4284755), wk =   0.0666667
        k(   12) = (   0.0000000   0.0000000   1.5713231), wk =   0.0666667
        k(   13) = (   0.0000000   0.0000000   1.7141706), wk =   0.0666667
        k(   14) = (   0.0000000   0.0000000   1.8570182), wk =   0.0666667
        k(   15) = (   0.0000000   0.0000000   1.9998657), wk =   0.0666667
        k(   16) = (   0.0000000   0.0000000   2.1427133), wk =   0.0666667
        k(   17) = (   0.0000000   0.0000000   2.2855608), wk =   0.0666667
        k(   18) = (   0.0000000   0.0000000   2.4284084), wk =   0.0666667
        k(   19) = (   0.0000000   0.0000000   2.5712559), wk =   0.0666667
        k(   20) = (   0.0000000   0.0000000   2.7141035), wk =   0.0666667
        k(   21) = (   0.0000000   0.0000000   2.8569510), wk =   0.0666667
        k(   22) = (   0.0000000   0.0000000   2.9997986), wk =   0.0666667
        k(   23) = (   0.0000000   0.0000000   3.1426461), wk =   0.0666667
        k(   24) = (   0.0000000   0.0000000   3.2854937), wk =   0.0666667
        k(   25) = (   0.0000000   0.0000000   3.4283412), wk =   0.0666667
        k(   26) = (   0.0000000   0.0000000   3.5711888), wk =   0.0666667
        k(   27) = (   0.0000000   0.0000000   3.7140363), wk =   0.0666667
        k(   28) = (   0.0000000   0.0000000   3.8568839), wk =   0.0666667
        k(   29) = (   0.0000000   0.0000000   3.9997314), wk =   0.0666667
        k(   30) = (   0.0000000   0.0000000   4.1425790), wk =   0.0666667

     G cutoff = 1823.7813  (  75931 G-vectors)     FFT grid: ( 90, 90, 20)

     Largest allocated arrays     est. size (Mb)     dimensions
        Kohn-Sham Wavefunctions         4.69 Mb     (   9614,  32)
        NL pseudopotentials             0.29 Mb     (   9614,   2)
        Each V/rho on FFT grid          2.47 Mb     ( 162000)
        Each G-vector array             0.58 Mb     (  75931)
        G-vector shells                 0.03 Mb     (   4164)
     Largest temporary arrays     est. size (Mb)     dimensions
        Auxiliary wavefunctions        18.78 Mb     (   9614, 128)
        Each subspace H/S matrix        0.25 Mb     (    128, 128)
        Each <psi_i|beta_j> matrix      0.00 Mb     (      2,  32)
        Arrays for rho mixing          19.78 Mb     ( 162000,   8)

     Initial potential from superposition of free atoms
     Check: negative starting charge=   -0.002674

     starting charge    9.99989, renormalised to   10.00000

     negative rho (up, down):  0.267E-02 0.000E+00
     Starting wfc are   10 atomic +   22 random wfc

     total cpu time spent up to now is     24.77 secs

     Self-consistent Calculation

     iteration #  1     ecut=    45.00 Ry     beta=0.70
     Davidson diagonalization with overlap
     ethr =  1.00E-02,  avg # of iterations =  6.5

     negative rho (up, down):  0.766E-03 0.000E+00

     total cpu time spent up to now is    150.59 secs

     total energy              =     -24.84674033 Ry
     Harris-Foulkes estimate   =     -25.19549603 Ry
     estimated scf accuracy    <       0.51768635 Ry

     iteration #  2     ecut=    45.00 Ry     beta=0.70
     Davidson diagonalization with overlap
     ethr =  5.18E-03,  avg # of iterations =  3.0

     negative rho (up, down):  0.290E-03 0.000E+00

     total cpu time spent up to now is    207.12 secs

     total energy              =     -24.95783439 Ry
     Harris-Foulkes estimate   =     -25.00950794 Ry
     estimated scf accuracy    <       0.08737620 Ry

     iteration #  3     ecut=    45.00 Ry     beta=0.70
     Davidson diagonalization with overlap
     ethr =  8.74E-04,  avg # of iterations =  2.6

     negative rho (up, down):  0.253E-04 0.000E+00

     total cpu time spent up to now is    262.84 secs

     total energy              =     -24.97797127 Ry
     Harris-Foulkes estimate   =     -24.97914687 Ry
     estimated scf accuracy    <       0.00232993 Ry

     iteration #  4     ecut=    45.00 Ry     beta=0.70
     Davidson diagonalization with overlap
     ethr =  2.33E-05,  avg # of iterations =  6.0

     negative rho (up, down):  0.124E-05 0.000E+00

     total cpu time spent up to now is    334.37 secs

     total energy              =     -24.97840522 Ry
     Harris-Foulkes estimate   =     -24.97841024 Ry
     estimated scf accuracy    <       0.00001722 Ry

     iteration #  5     ecut=    45.00 Ry     beta=0.70
     Davidson diagonalization with overlap
     ethr =  1.72E-07,  avg # of iterations =  3.7

     total cpu time spent up to now is    397.17 secs

     End of self-consistent calculation

          k = 0.0000 0.0000 0.0000 (  9425 PWs)   bands (ev):

   -20.0549 -13.5200  -8.4935  -8.4767  -7.5437   0.1866   0.4289   0.8229
     1.3005   1.3570   1.9789   2.5378   2.9450   3.5177   3.5322   4.1860
     4.7970   5.1411   5.4533   6.0169   6.1173   6.6586   6.6635   6.7763
     7.0788   7.1422   7.3687   8.9283   9.4905  10.1157  10.2178  10.6684

          k = 0.0000 0.0000 0.1428 (  9414 PWs)   bands (ev):

   -20.0364 -13.5025  -8.5459  -8.4519  -7.5724   0.2099   0.4564   0.8391
     1.3260   1.3842   2.0028   2.5662   2.9722   3.5442   3.5443   4.1821
     4.8801   5.1684   5.4800   6.0422   6.1682   6.6832   6.6909   6.8010
     7.1069   7.1398   7.3961   8.9451   9.5047  10.0272  10.2447  10.6617

          k = 0.0000 0.0000 0.2857 (  9450 PWs)   bands (ev):

   -19.9816 -13.4519  -8.7162  -8.3794  -7.6427   0.2790   0.5380   0.8847
     1.4021   1.4655   2.0739   2.6507   3.0535   3.5776   3.6240   4.1784
     5.0996   5.2502   5.5602   6.1187   6.3262   6.7544   6.7728   6.8761
     7.1326   7.1917   7.4772   8.9844   9.5228   9.8478  10.3254  10.6421

          k = 0.0000 0.0000 0.4285 (  9466 PWs)   bands (ev):

   -19.8902 -13.3678  -9.0119  -8.2580  -7.7186   0.3931   0.6722   0.9538
     1.5286   1.6011   2.1915   2.7902   3.1889   3.6278   3.7562   4.1844
     5.3864   5.3957   5.6939   6.2468   6.6017   6.8562   6.9093   7.0096
     7.1347   7.3366   7.6117   8.9963   9.4872   9.8209  10.4594  10.6165

          k = 0.0000 0.0000 0.5714 (  9494 PWs)   bands (ev):

   -19.7632 -13.2528  -9.4246  -8.0892  -7.7872   0.5497   0.8572   1.0342
     1.7044   1.7908   2.3538   2.9834   3.3781   3.6880   3.9392   4.2035
     5.5772   5.7110   5.8814   6.4259   6.9247   6.9490   7.1002   7.2114
     7.2418   7.5547   7.7991   8.9277   9.5406   9.9465  10.5968  10.6513

          k = 0.0000 0.0000 0.7142 (  9518 PWs)   bands (ev):

   -19.6003 -13.1097  -9.9235  -7.8727  -7.8528   0.7447   1.0920   1.1032
     1.9276   2.0347   2.5582   3.2299   3.6182   3.7542   4.1523   4.2615
     5.8223   6.0235   6.1213   6.6549   6.9227   7.2376   7.3455   7.4141
     7.6054   7.8959   8.0393   8.8801   9.7166  10.1409  10.6204  10.8897

          k = 0.0000 0.0000 0.8571 (  9498 PWs)   bands (ev):

   -19.4005 -12.9433 -10.4689  -7.9259  -7.6082   0.9721   1.1239   1.3759
     2.1954   2.3327   2.8024   3.5294   3.8075   3.9317   4.2729   4.4968
     6.1218   6.3454   6.4057   6.9248   6.9323   7.5016   7.6452   7.7003
     7.9637   8.3325   8.3392   8.9611   9.9544  10.4004  10.7055  11.1822

          k = 0.0000 0.0000 0.9999 (  9522 PWs)   bands (ev):

   -19.1667 -12.7732 -11.0246  -8.0213  -7.2981   1.0442   1.2226   1.7081
     2.5034   2.6846   3.0865   3.8815   3.9109   4.2788   4.3984   4.8366
     6.4754   6.6965   6.7150   6.9906   7.2563   7.7947   7.9990   8.0495
     8.3323   8.6778   8.6920   9.1008  10.2340  10.7637  10.8682  11.5245

          k = 0.0000 0.0000 1.1428 (  9514 PWs)   bands (ev):

   -18.8983 -12.6600 -11.5115  -8.1447  -6.9425   0.8241   1.4864   2.0885
     2.8484   3.0904   3.4170   4.0815   4.2861   4.6040   4.6843   5.2335
     6.8825   7.0095   7.0892   7.1553   7.6238   8.1343   8.4066   8.4566
     8.7425   8.9728   9.0227   9.0747  10.5854  11.1073  11.2169  11.7238

          k = 0.0000 0.0000 1.2856 (  9514 PWs)   bands (ev):

   -18.5961 -12.7958 -11.7287  -8.3040  -6.5431   0.4546   1.7555   2.5165
     3.2325   3.5498   3.8060   4.3517   4.7421   4.9075   5.1441   5.6829
     7.1718   7.3389   7.4307   7.5257   8.0276   8.5220   8.7567   8.8671
     8.9196   9.2016   9.3078   9.5217  10.9213  11.3968  11.3975  11.5887

          k = 0.0000 0.0000 1.4285 (  9558 PWs)   bands (ev):

   -18.2616 -13.2410 -11.6091  -8.5041  -6.1033  -0.0411   2.0309   2.9908
     3.6656   4.0625   4.2620   4.7254   5.2462   5.3078   5.6574   6.1822
     6.9755   7.7792   7.8736   8.0051   8.4388   8.7515   8.9641   9.3784
     9.4378   9.5650   9.7122  10.0147  10.7773  11.2474  11.5709  11.6249

          k = 0.0000 0.0000 1.5713 (  9566 PWs)   bands (ev):

   -17.8955 -13.7886 -11.3505  -8.7415  -5.6237  -0.6177   2.3249   3.5104
     4.1595   4.6283   4.7845   5.1929   5.7689   5.7952   6.2237   6.4921
     6.7262   8.2330   8.4388   8.5214   8.6594   9.0440   9.3514   9.7474
     9.9301  10.0092  10.2690  10.4387  10.5337  10.8178  10.9917  11.1518

          k = 0.0000 0.0000 1.7142 (  9546 PWs)   bands (ev):

   -17.5011 -14.3489 -11.0401  -9.0140  -5.1104  -1.2345   2.6538   4.0726
     4.7185   5.2464   5.3640   5.7342   5.7417   6.3629   6.5147   6.8415
     7.2822   8.3119   8.7348   9.0021   9.0592   9.2053   9.7950   9.8901
    10.1052  10.2001  10.2598  10.2674  10.6493  10.7213  10.9011  11.0635

          k = 0.0000 0.0000 1.8570 (  9582 PWs)   bands (ev):

   -17.0881 -14.8879 -10.7093  -9.3185  -4.5763  -1.8629   3.0306   4.6634
     5.1330   5.3562   5.9153   5.9923   6.3610   6.9931   7.1350   7.4267
     7.5066   8.1710   8.4300   8.9545   9.1847   9.4803   9.5622   9.7727
     9.7794   9.9427  10.3002  10.4605  10.5841  10.8092  10.8597  11.2997

          k = 0.0000 0.0000 1.9999 (  9614 PWs)   bands (ev):

   -16.6856 -15.3714 -10.3711  -9.6396  -4.0560  -2.4440   3.4606   4.5240
     5.3293   6.0279   6.4486   6.6317   7.0365   7.0582   7.5179   7.6918
     7.9049   8.1731   8.2370   8.3988   8.7102   8.7629   9.2264   9.5302
     9.7281  10.1445  10.3028  10.4824  10.5730  10.9958  11.2268  11.5139

          k = 0.0000 0.0000 2.1427 (  9602 PWs)   bands (ev):

   -16.4548 -15.6271 -10.1185  -9.8851  -3.7556  -2.7647   3.8557   4.0784
     5.9384   6.0067   6.7284   6.8331   7.3563   7.3636   7.5804   7.5947
     7.8263   7.8618   8.3593   8.4266   8.6830   8.7044   9.0215   9.0527
     9.5084   9.5713  10.8290  10.9254  11.0034  11.0744  11.2363  11.2861

          k = 0.0000 0.0000 2.2856 (  9614 PWs)   bands (ev):

   -16.6856 -15.3714 -10.3711  -9.6396  -4.0560  -2.4440   3.4606   4.5240
     5.3293   6.0279   6.4486   6.6317   7.0365   7.0582   7.5179   7.6918
     7.9049   8.1731   8.2370   8.3988   8.7102   8.7629   9.2264   9.5302
     9.7281  10.1445  10.3028  10.4824  10.5730  10.9958  11.2269  11.5137

          k = 0.0000 0.0000 2.4284 (  9582 PWs)   bands (ev):

   -17.0881 -14.8879 -10.7093  -9.3185  -4.5763  -1.8629   3.0306   4.6634
     5.1330   5.3562   5.9153   5.9923   6.3610   6.9932   7.1350   7.4267
     7.5066   8.1711   8.4300   8.9545   9.1847   9.4803   9.5622   9.7727
     9.7794   9.9427  10.3002  10.4605  10.5841  10.8091  10.8598  11.2997

          k = 0.0000 0.0000 2.5713 (  9546 PWs)   bands (ev):

   -17.5011 -14.3489 -11.0401  -9.0140  -5.1104  -1.2345   2.6538   4.0726
     4.7185   5.2464   5.3640   5.7342   5.7417   6.3629   6.5147   6.8415
     7.2822   8.3119   8.7348   9.0021   9.0592   9.2053   9.7950   9.8901
    10.1052  10.2001  10.2598  10.2674  10.6493  10.7213  10.9011  11.0635

          k = 0.0000 0.0000 2.7141 (  9566 PWs)   bands (ev):

   -17.8955 -13.7886 -11.3505  -8.7415  -5.6237  -0.6177   2.3249   3.5104
     4.1595   4.6283   4.7845   5.1929   5.7689   5.7952   6.2237   6.4921
     6.7262   8.2330   8.4388   8.5214   8.6594   9.0440   9.3514   9.7474
     9.9301  10.0092  10.2690  10.4387  10.5337  10.8178  10.9917  11.1518

          k = 0.0000 0.0000 2.8570 (  9558 PWs)   bands (ev):

   -18.2616 -13.2410 -11.6091  -8.5041  -6.1033  -0.0411   2.0309   2.9908
     3.6656   4.0625   4.2620   4.7254   5.2462   5.3078   5.6574   6.1822
     6.9755   7.7792   7.8736   8.0051   8.4388   8.7515   8.9641   9.3784
     9.4378   9.5650   9.7122  10.0147  10.7773  11.2474  11.5709  11.6250

          k = 0.0000 0.0000 2.9998 (  9514 PWs)   bands (ev):

   -18.5961 -12.7958 -11.7287  -8.3040  -6.5431   0.4546   1.7555   2.5165
     3.2325   3.5498   3.8060   4.3517   4.7421   4.9075   5.1441   5.6829
     7.1718   7.3389   7.4307   7.5257   8.0276   8.5220   8.7567   8.8671
     8.9196   9.2016   9.3078   9.5217  10.9212  11.3969  11.3975  11.5886

          k = 0.0000 0.0000 3.1426 (  9514 PWs)   bands (ev):

   -18.8983 -12.6600 -11.5115  -8.1447  -6.9425   0.8241   1.4864   2.0885
     2.8484   3.0904   3.4170   4.0815   4.2861   4.6040   4.6843   5.2335
     6.8825   7.0094   7.0892   7.1553   7.6238   8.1343   8.4066   8.4565
     8.7425   8.9728   9.0227   9.0747  10.5855  11.1072  11.2169  11.7238

          k = 0.0000 0.0000 3.2855 (  9522 PWs)   bands (ev):

   -19.1667 -12.7732 -11.0246  -8.0213  -7.2981   1.0442   1.2226   1.7081
     2.5034   2.6846   3.0865   3.8815   3.9109   4.2788   4.3984   4.8366
     6.4754   6.6965   6.7150   6.9906   7.2563   7.7947   7.9990   8.0495
     8.3323   8.6778   8.6920   9.1008  10.2340  10.7637  10.8682  11.5245

          k = 0.0000 0.0000 3.4283 (  9498 PWs)   bands (ev):

   -19.4005 -12.9433 -10.4689  -7.9259  -7.6082   0.9721   1.1239   1.3759
     2.1954   2.3327   2.8024   3.5294   3.8075   3.9317   4.2729   4.4968
     6.1218   6.3454   6.4057   6.9248   6.9323   7.5016   7.6452   7.7003
     7.9637   8.3325   8.3392   8.9611   9.9544  10.4004  10.7055  11.1822

          k = 0.0000 0.0000 3.5712 (  9518 PWs)   bands (ev):

   -19.6003 -13.1097  -9.9235  -7.8727  -7.8528   0.7447   1.0920   1.1032
     1.9276   2.0347   2.5582   3.2299   3.6182   3.7542   4.1523   4.2615
     5.8223   6.0235   6.1213   6.6549   6.9227   7.2376   7.3455   7.4141
     7.6054   7.8959   8.0393   8.8801   9.7166  10.1409  10.6204  10.8897

          k = 0.0000 0.0000 3.7140 (  9494 PWs)   bands (ev):

   -19.7632 -13.2528  -9.4246  -8.0892  -7.7872   0.5497   0.8572   1.0342
     1.7044   1.7908   2.3538   2.9834   3.3781   3.6880   3.9392   4.2035
     5.5772   5.7110   5.8814   6.4259   6.9248   6.9490   7.1002   7.2114
     7.2418   7.5547   7.7990   8.9277   9.5406   9.9465  10.5968  10.6512

          k = 0.0000 0.0000 3.8569 (  9466 PWs)   bands (ev):

   -19.8902 -13.3678  -9.0119  -8.2580  -7.7186   0.3931   0.6722   0.9538
     1.5286   1.6011   2.1915   2.7902   3.1889   3.6278   3.7562   4.1844
     5.3864   5.3957   5.6939   6.2468   6.6017   6.8562   6.9093   7.0096
     7.1347   7.3366   7.6117   8.9963   9.4872   9.8209  10.4594  10.6165

          k = 0.0000 0.0000 3.9997 (  9450 PWs)   bands (ev):

   -19.9816 -13.4519  -8.7162  -8.3794  -7.6427   0.2790   0.5380   0.8847
     1.4021   1.4655   2.0739   2.6507   3.0535   3.5776   3.6240   4.1784
     5.0996   5.2502   5.5602   6.1187   6.3262   6.7544   6.7728   6.8761
     7.1326   7.1917   7.4772   8.9844   9.5228   9.8478  10.3254  10.6424

          k = 0.0000 0.0000 4.1426 (  9414 PWs)   bands (ev):

   -20.0364 -13.5025  -8.5459  -8.4519  -7.5724   0.2099   0.4564   0.8391
     1.3260   1.3842   2.0028   2.5662   2.9722   3.5442   3.5443   4.1821
     4.8801   5.1684   5.4800   6.0422   6.1682   6.6832   6.6909   6.8010
     7.1069   7.1398   7.3961   8.9451   9.5047  10.0272  10.2447  10.6617

     highest occupied, lowest unoccupied level (ev):    -3.7556   -2.7647

!    total energy              =     -24.97840932 Ry
     Harris-Foulkes estimate   =     -24.97840926 Ry
     estimated scf accuracy    <       0.00000041 Ry

     The total energy is the sum of the following terms:

     one-electron contribution =     -91.44267157 Ry
     hartree contribution      =      46.85595807 Ry
     xc contribution           =      -8.22566564 Ry
     ewald contribution        =      27.83396982 Ry

     convergence has been achieved in   5 iterations

     Forces acting on atoms (Ry/au):

     atom   1 type  1   force =     0.01999930    0.00000170   -0.06915668
     atom   2 type  1   force =    -0.02000129   -0.00000062    0.06914004
     atom   3 type  2   force =    -0.03118274   -0.00000004    0.00029173
     atom   4 type  2   force =     0.03118473   -0.00000104   -0.00027509

     Total force =     0.110942     Total SCF correction =     0.000322

     Writing output data file chain.save

     init_run     :     20.98s CPU     24.49s WALL (       1 calls)
     electrons    :    371.68s CPU    372.41s WALL (       1 calls)
     forces       :      1.67s CPU      2.00s WALL (       1 calls)

     Called by init_run:
     wfcinit      :     20.33s CPU     23.77s WALL (       1 calls)
     potinit      :      0.19s CPU      0.21s WALL (       1 calls)

     Called by electrons:
     c_bands      :    328.71s CPU    327.25s WALL (       5 calls)
     sum_band     :     42.38s CPU     44.40s WALL (       5 calls)
     v_of_rho     :      0.39s CPU      0.43s WALL (       6 calls)
     mix_rho      :      0.15s CPU      0.20s WALL (       5 calls)

     Called by c_bands:
     init_us_2    :      1.12s CPU      1.45s WALL (     360 calls)
     cegterg      :    318.86s CPU    310.65s WALL (     150 calls)

     Called by *egterg:
     h_psi        :    221.51s CPU    225.17s WALL (     835 calls)
     g_psi        :      5.84s CPU      5.94s WALL (     655 calls)
     cdiaghg      :      7.68s CPU      8.67s WALL (     805 calls)

     Called by h_psi:
     add_vuspsi   :      1.78s CPU      1.81s WALL (     835 calls)

     General routines
     calbec       :      2.06s CPU      2.13s WALL (     865 calls)
     fft          :      0.28s CPU      0.29s WALL (      25 calls)
     fftw         :    225.93s CPU    229.33s WALL (   33786 calls)
     davcio       :     14.66s CPU     25.63s WALL (     510 calls)


     PWSCF        :  6m34.49s CPU     6m39.37s WALL


   This run was terminated on:  16:53:48  19Jan2011            

=------------------------------------------------------------------------------=
   JOB DONE.
=------------------------------------------------------------------------------=
